#Cu

32000 atoms
1 atom types
0.0 72.690684 xlo xhi
0.0 72.690684 ylo yhi
0.0 72.690684 zlo zhi

Atoms

1 1 0.000000 0.000000 0.000000
2 1 0.000000 1.817267 1.817267
3 1 1.817267 1.817267 0.000000
4 1 1.817267 0.000000 1.817267
5 1 3.634534 0.000000 0.000000
6 1 3.634534 1.817267 1.817267
7 1 5.451801 1.817267 0.000000
8 1 5.451801 0.000000 1.817267
9 1 7.269068 0.000000 0.000000
10 1 7.269068 1.817267 1.817267
11 1 9.086336 1.817267 0.000000
12 1 9.086336 0.000000 1.817267
13 1 10.903603 0.000000 0.000000
14 1 10.903603 1.817267 1.817267
15 1 12.720870 1.817267 0.000000
16 1 12.720870 0.000000 1.817267
17 1 14.538137 0.000000 0.000000
18 1 14.538137 1.817267 1.817267
19 1 16.355404 1.817267 0.000000
20 1 16.355404 0.000000 1.817267
21 1 18.172671 0.000000 0.000000
22 1 18.172671 1.817267 1.817267
23 1 19.989938 1.817267 0.000000
24 1 19.989938 0.000000 1.817267
25 1 21.807205 0.000000 0.000000
26 1 21.807205 1.817267 1.817267
27 1 23.624472 1.817267 0.000000
28 1 23.624472 0.000000 1.817267
29 1 25.441739 0.000000 0.000000
30 1 25.441739 1.817267 1.817267
31 1 27.259006 1.817267 0.000000
32 1 27.259006 0.000000 1.817267
33 1 29.076274 0.000000 0.000000
34 1 29.076274 1.817267 1.817267
35 1 30.893541 1.817267 0.000000
36 1 30.893541 0.000000 1.817267
37 1 32.710808 0.000000 0.000000
38 1 32.710808 1.817267 1.817267
39 1 34.528075 1.817267 0.000000
40 1 34.528075 0.000000 1.817267
41 1 36.345342 0.000000 0.000000
42 1 36.345342 1.817267 1.817267
43 1 38.162609 1.817267 0.000000
44 1 38.162609 0.000000 1.817267
45 1 39.979876 0.000000 0.000000
46 1 39.979876 1.817267 1.817267
47 1 41.797143 1.817267 0.000000
48 1 41.797143 0.000000 1.817267
49 1 43.614410 0.000000 0.000000
50 1 43.614410 1.817267 1.817267
51 1 45.431678 1.817267 0.000000
52 1 45.431678 0.000000 1.817267
53 1 47.248945 0.000000 0.000000
54 1 47.248945 1.817267 1.817267
55 1 49.066212 1.817267 0.000000
56 1 49.066212 0.000000 1.817267
57 1 50.883479 0.000000 0.000000
58 1 50.883479 1.817267 1.817267
59 1 52.700746 1.817267 0.000000
60 1 52.700746 0.000000 1.817267
61 1 54.518013 0.000000 0.000000
62 1 54.518013 1.817267 1.817267
63 1 56.335280 1.817267 0.000000
64 1 56.335280 0.000000 1.817267
65 1 58.152547 0.000000 0.000000
66 1 58.152547 1.817267 1.817267
67 1 59.969814 1.817267 0.000000
68 1 59.969814 0.000000 1.817267
69 1 61.787081 0.000000 0.000000
70 1 61.787081 1.817267 1.817267
71 1 63.604349 1.817267 0.000000
72 1 63.604349 0.000000 1.817267
73 1 65.421616 0.000000 0.000000
74 1 65.421616 1.817267 1.817267
75 1 67.238883 1.817267 0.000000
76 1 67.238883 0.000000 1.817267
77 1 69.056150 0.000000 0.000000
78 1 69.056150 1.817267 1.817267
79 1 70.873417 1.817267 0.000000
80 1 70.873417 0.000000 1.817267
81 1 0.000000 3.634534 0.000000
82 1 0.000000 5.451801 1.817267
83 1 1.817267 5.451801 0.000000
84 1 1.817267 3.634534 1.817267
85 1 3.634534 3.634534 0.000000
86 1 3.634534 5.451801 1.817267
87 1 5.451801 5.451801 0.000000
88 1 5.451801 3.634534 1.817267
89 1 7.269068 3.634534 0.000000
90 1 7.269068 5.451801 1.817267
91 1 9.086336 5.451801 0.000000
92 1 9.086336 3.634534 1.817267
93 1 10.903603 3.634534 0.000000
94 1 10.903603 5.451801 1.817267
95 1 12.720870 5.451801 0.000000
96 1 12.720870 3.634534 1.817267
97 1 14.538137 3.634534 0.000000
98 1 14.538137 5.451801 1.817267
99 1 16.355404 5.451801 0.000000
100 1 16.355404 3.634534 1.817267
101 1 18.172671 3.634534 0.000000
102 1 18.172671 5.451801 1.817267
103 1 19.989938 5.451801 0.000000
104 1 19.989938 3.634534 1.817267
105 1 21.807205 3.634534 0.000000
106 1 21.807205 5.451801 1.817267
107 1 23.624472 5.451801 0.000000
108 1 23.624472 3.634534 1.817267
109 1 25.441739 3.634534 0.000000
110 1 25.441739 5.451801 1.817267
111 1 27.259006 5.451801 0.000000
112 1 27.259006 3.634534 1.817267
113 1 29.076274 3.634534 0.000000
114 1 29.076274 5.451801 1.817267
115 1 30.893541 5.451801 0.000000
116 1 30.893541 3.634534 1.817267
117 1 32.710808 3.634534 0.000000
118 1 32.710808 5.451801 1.817267
119 1 34.528075 5.451801 0.000000
120 1 34.528075 3.634534 1.817267
121 1 36.345342 3.634534 0.000000
122 1 36.345342 5.451801 1.817267
123 1 38.162609 5.451801 0.000000
124 1 38.162609 3.634534 1.817267
125 1 39.979876 3.634534 0.000000
126 1 39.979876 5.451801 1.817267
127 1 41.797143 5.451801 0.000000
128 1 41.797143 3.634534 1.817267
129 1 43.614410 3.634534 0.000000
130 1 43.614410 5.451801 1.817267
131 1 45.431678 5.451801 0.000000
132 1 45.431678 3.634534 1.817267
133 1 47.248945 3.634534 0.000000
134 1 47.248945 5.451801 1.817267
135 1 49.066212 5.451801 0.000000
136 1 49.066212 3.634534 1.817267
137 1 50.883479 3.634534 0.000000
138 1 50.883479 5.451801 1.817267
139 1 52.700746 5.451801 0.000000
140 1 52.700746 3.634534 1.817267
141 1 54.518013 3.634534 0.000000
142 1 54.518013 5.451801 1.817267
143 1 56.335280 5.451801 0.000000
144 1 56.335280 3.634534 1.817267
145 1 58.152547 3.634534 0.000000
146 1 58.152547 5.451801 1.817267
147 1 59.969814 5.451801 0.000000
148 1 59.969814 3.634534 1.817267
149 1 61.787081 3.634534 0.000000
150 1 61.787081 5.451801 1.817267
151 1 63.604349 5.451801 0.000000
152 1 63.604349 3.634534 1.817267
153 1 65.421616 3.634534 0.000000
154 1 65.421616 5.451801 1.817267
155 1 67.238883 5.451801 0.000000
156 1 67.238883 3.634534 1.817267
157 1 69.056150 3.634534 0.000000
158 1 69.056150 5.451801 1.817267
159 1 70.873417 5.451801 0.000000
160 1 70.873417 3.634534 1.817267
161 1 0.000000 7.269068 0.000000
162 1 0.000000 9.086336 1.817267
163 1 1.817267 9.086336 0.000000
164 1 1.817267 7.269068 1.817267
165 1 3.634534 7.269068 0.000000
166 1 3.634534 9.086336 1.817267
167 1 5.451801 9.086336 0.000000
168 1 5.451801 7.269068 1.817267
169 1 7.269068 7.269068 0.000000
170 1 7.269068 9.086336 1.817267
171 1 9.086336 9.086336 0.000000
172 1 9.086336 7.269068 1.817267
173 1 10.903603 7.269068 0.000000
174 1 10.903603 9.086336 1.817267
175 1 12.720870 9.086336 0.000000
176 1 12.720870 7.269068 1.817267
177 1 14.538137 7.269068 0.000000
178 1 14.538137 9.086336 1.817267
179 1 16.355404 9.086336 0.000000
180 1 16.355404 7.269068 1.817267
181 1 18.172671 7.269068 0.000000
182 1 18.172671 9.086336 1.817267
183 1 19.989938 9.086336 0.000000
184 1 19.989938 7.269068 1.817267
185 1 21.807205 7.269068 0.000000
186 1 21.807205 9.086336 1.817267
187 1 23.624472 9.086336 0.000000
188 1 23.624472 7.269068 1.817267
189 1 25.441739 7.269068 0.000000
190 1 25.441739 9.086336 1.817267
191 1 27.259006 9.086336 0.000000
192 1 27.259006 7.269068 1.817267
193 1 29.076274 7.269068 0.000000
194 1 29.076274 9.086336 1.817267
195 1 30.893541 9.086336 0.000000
196 1 30.893541 7.269068 1.817267
197 1 32.710808 7.269068 0.000000
198 1 32.710808 9.086336 1.817267
199 1 34.528075 9.086336 0.000000
200 1 34.528075 7.269068 1.817267
201 1 36.345342 7.269068 0.000000
202 1 36.345342 9.086336 1.817267
203 1 38.162609 9.086336 0.000000
204 1 38.162609 7.269068 1.817267
205 1 39.979876 7.269068 0.000000
206 1 39.979876 9.086336 1.817267
207 1 41.797143 9.086336 0.000000
208 1 41.797143 7.269068 1.817267
209 1 43.614410 7.269068 0.000000
210 1 43.614410 9.086336 1.817267
211 1 45.431678 9.086336 0.000000
212 1 45.431678 7.269068 1.817267
213 1 47.248945 7.269068 0.000000
214 1 47.248945 9.086336 1.817267
215 1 49.066212 9.086336 0.000000
216 1 49.066212 7.269068 1.817267
217 1 50.883479 7.269068 0.000000
218 1 50.883479 9.086336 1.817267
219 1 52.700746 9.086336 0.000000
220 1 52.700746 7.269068 1.817267
221 1 54.518013 7.269068 0.000000
222 1 54.518013 9.086336 1.817267
223 1 56.335280 9.086336 0.000000
224 1 56.335280 7.269068 1.817267
225 1 58.152547 7.269068 0.000000
226 1 58.152547 9.086336 1.817267
227 1 59.969814 9.086336 0.000000
228 1 59.969814 7.269068 1.817267
229 1 61.787081 7.269068 0.000000
230 1 61.787081 9.086336 1.817267
231 1 63.604349 9.086336 0.000000
232 1 63.604349 7.269068 1.817267
233 1 65.421616 7.269068 0.000000
234 1 65.421616 9.086336 1.817267
235 1 67.238883 9.086336 0.000000
236 1 67.238883 7.269068 1.817267
237 1 69.056150 7.269068 0.000000
238 1 69.056150 9.086336 1.817267
239 1 70.873417 9.086336 0.000000
240 1 70.873417 7.269068 1.817267
241 1 0.000000 10.903603 0.000000
242 1 0.000000 12.720870 1.817267
243 1 1.817267 12.720870 0.000000
244 1 1.817267 10.903603 1.817267
245 1 3.634534 10.903603 0.000000
246 1 3.634534 12.720870 1.817267
247 1 5.451801 12.720870 0.000000
248 1 5.451801 10.903603 1.817267
249 1 7.269068 10.903603 0.000000
250 1 7.269068 12.720870 1.817267
251 1 9.086336 12.720870 0.000000
252 1 9.086336 10.903603 1.817267
253 1 10.903603 10.903603 0.000000
254 1 10.903603 12.720870 1.817267
255 1 12.720870 12.720870 0.000000
256 1 12.720870 10.903603 1.817267
257 1 14.538137 10.903603 0.000000
258 1 14.538137 12.720870 1.817267
259 1 16.355404 12.720870 0.000000
260 1 16.355404 10.903603 1.817267
261 1 18.172671 10.903603 0.000000
262 1 18.172671 12.720870 1.817267
263 1 19.989938 12.720870 0.000000
264 1 19.989938 10.903603 1.817267
265 1 21.807205 10.903603 0.000000
266 1 21.807205 12.720870 1.817267
267 1 23.624472 12.720870 0.000000
268 1 23.624472 10.903603 1.817267
269 1 25.441739 10.903603 0.000000
270 1 25.441739 12.720870 1.817267
271 1 27.259006 12.720870 0.000000
272 1 27.259006 10.903603 1.817267
273 1 29.076274 10.903603 0.000000
274 1 29.076274 12.720870 1.817267
275 1 30.893541 12.720870 0.000000
276 1 30.893541 10.903603 1.817267
277 1 32.710808 10.903603 0.000000
278 1 32.710808 12.720870 1.817267
279 1 34.528075 12.720870 0.000000
280 1 34.528075 10.903603 1.817267
281 1 36.345342 10.903603 0.000000
282 1 36.345342 12.720870 1.817267
283 1 38.162609 12.720870 0.000000
284 1 38.162609 10.903603 1.817267
285 1 39.979876 10.903603 0.000000
286 1 39.979876 12.720870 1.817267
287 1 41.797143 12.720870 0.000000
288 1 41.797143 10.903603 1.817267
289 1 43.614410 10.903603 0.000000
290 1 43.614410 12.720870 1.817267
291 1 45.431678 12.720870 0.000000
292 1 45.431678 10.903603 1.817267
293 1 47.248945 10.903603 0.000000
294 1 47.248945 12.720870 1.817267
295 1 49.066212 12.720870 0.000000
296 1 49.066212 10.903603 1.817267
297 1 50.883479 10.903603 0.000000
298 1 50.883479 12.720870 1.817267
299 1 52.700746 12.720870 0.000000
300 1 52.700746 10.903603 1.817267
301 1 54.518013 10.903603 0.000000
302 1 54.518013 12.720870 1.817267
303 1 56.335280 12.720870 0.000000
304 1 56.335280 10.903603 1.817267
305 1 58.152547 10.903603 0.000000
306 1 58.152547 12.720870 1.817267
307 1 59.969814 12.720870 0.000000
308 1 59.969814 10.903603 1.817267
309 1 61.787081 10.903603 0.000000
310 1 61.787081 12.720870 1.817267
311 1 63.604349 12.720870 0.000000
312 1 63.604349 10.903603 1.817267
313 1 65.421616 10.903603 0.000000
314 1 65.421616 12.720870 1.817267
315 1 67.238883 12.720870 0.000000
316 1 67.238883 10.903603 1.817267
317 1 69.056150 10.903603 0.000000
318 1 69.056150 12.720870 1.817267
319 1 70.873417 12.720870 0.000000
320 1 70.873417 10.903603 1.817267
321 1 0.000000 14.538137 0.000000
322 1 0.000000 16.355404 1.817267
323 1 1.817267 16.355404 0.000000
324 1 1.817267 14.538137 1.817267
325 1 3.634534 14.538137 0.000000
326 1 3.634534 16.355404 1.817267
327 1 5.451801 16.355404 0.000000
328 1 5.451801 14.538137 1.817267
329 1 7.269068 14.538137 0.000000
330 1 7.269068 16.355404 1.817267
331 1 9.086336 16.355404 0.000000
332 1 9.086336 14.538137 1.817267
333 1 10.903603 14.538137 0.000000
334 1 10.903603 16.355404 1.817267
335 1 12.720870 16.355404 0.000000
336 1 12.720870 14.538137 1.817267
337 1 14.538137 14.538137 0.000000
338 1 14.538137 16.355404 1.817267
339 1 16.355404 16.355404 0.000000
340 1 16.355404 14.538137 1.817267
341 1 18.172671 14.538137 0.000000
342 1 18.172671 16.355404 1.817267
343 1 19.989938 16.355404 0.000000
344 1 19.989938 14.538137 1.817267
345 1 21.807205 14.538137 0.000000
346 1 21.807205 16.355404 1.817267
347 1 23.624472 16.355404 0.000000
348 1 23.624472 14.538137 1.817267
349 1 25.441739 14.538137 0.000000
350 1 25.441739 16.355404 1.817267
351 1 27.259006 16.355404 0.000000
352 1 27.259006 14.538137 1.817267
353 1 29.076274 14.538137 0.000000
354 1 29.076274 16.355404 1.817267
355 1 30.893541 16.355404 0.000000
356 1 30.893541 14.538137 1.817267
357 1 32.710808 14.538137 0.000000
358 1 32.710808 16.355404 1.817267
359 1 34.528075 16.355404 0.000000
360 1 34.528075 14.538137 1.817267
361 1 36.345342 14.538137 0.000000
362 1 36.345342 16.355404 1.817267
363 1 38.162609 16.355404 0.000000
364 1 38.162609 14.538137 1.817267
365 1 39.979876 14.538137 0.000000
366 1 39.979876 16.355404 1.817267
367 1 41.797143 16.355404 0.000000
368 1 41.797143 14.538137 1.817267
369 1 43.614410 14.538137 0.000000
370 1 43.614410 16.355404 1.817267
371 1 45.431678 16.355404 0.000000
372 1 45.431678 14.538137 1.817267
373 1 47.248945 14.538137 0.000000
374 1 47.248945 16.355404 1.817267
375 1 49.066212 16.355404 0.000000
376 1 49.066212 14.538137 1.817267
377 1 50.883479 14.538137 0.000000
378 1 50.883479 16.355404 1.817267
379 1 52.700746 16.355404 0.000000
380 1 52.700746 14.538137 1.817267
381 1 54.518013 14.538137 0.000000
382 1 54.518013 16.355404 1.817267
383 1 56.335280 16.355404 0.000000
384 1 56.335280 14.538137 1.817267
385 1 58.152547 14.538137 0.000000
386 1 58.152547 16.355404 1.817267
387 1 59.969814 16.355404 0.000000
388 1 59.969814 14.538137 1.817267
389 1 61.787081 14.538137 0.000000
390 1 61.787081 16.355404 1.817267
391 1 63.604349 16.355404 0.000000
392 1 63.604349 14.538137 1.817267
393 1 65.421616 14.538137 0.000000
394 1 65.421616 16.355404 1.817267
395 1 67.238883 16.355404 0.000000
396 1 67.238883 14.538137 1.817267
397 1 69.056150 14.538137 0.000000
398 1 69.056150 16.355404 1.817267
399 1 70.873417 16.355404 0.000000
400 1 70.873417 14.538137 1.817267
401 1 0.000000 18.172671 0.000000
402 1 0.000000 19.989938 1.817267
403 1 1.817267 19.989938 0.000000
404 1 1.817267 18.172671 1.817267
405 1 3.634534 18.172671 0.000000
406 1 3.634534 19.989938 1.817267
407 1 5.451801 19.989938 0.000000
408 1 5.451801 18.172671 1.817267
409 1 7.269068 18.172671 0.000000
410 1 7.269068 19.989938 1.817267
411 1 9.086336 19.989938 0.000000
412 1 9.086336 18.172671 1.817267
413 1 10.903603 18.172671 0.000000
414 1 10.903603 19.989938 1.817267
415 1 12.720870 19.989938 0.000000
416 1 12.720870 18.172671 1.817267
417 1 14.538137 18.172671 0.000000
418 1 14.538137 19.989938 1.817267
419 1 16.355404 19.989938 0.000000
420 1 16.355404 18.172671 1.817267
421 1 18.172671 18.172671 0.000000
422 1 18.172671 19.989938 1.817267
423 1 19.989938 19.989938 0.000000
424 1 19.989938 18.172671 1.817267
425 1 21.807205 18.172671 0.000000
426 1 21.807205 19.989938 1.817267
427 1 23.624472 19.989938 0.000000
428 1 23.624472 18.172671 1.817267
429 1 25.441739 18.172671 0.000000
430 1 25.441739 19.989938 1.817267
431 1 27.259006 19.989938 0.000000
432 1 27.259006 18.172671 1.817267
433 1 29.076274 18.172671 0.000000
434 1 29.076274 19.989938 1.817267
435 1 30.893541 19.989938 0.000000
436 1 30.893541 18.172671 1.817267
437 1 32.710808 18.172671 0.000000
438 1 32.710808 19.989938 1.817267
439 1 34.528075 19.989938 0.000000
440 1 34.528075 18.172671 1.817267
441 1 36.345342 18.172671 0.000000
442 1 36.345342 19.989938 1.817267
443 1 38.162609 19.989938 0.000000
444 1 38.162609 18.172671 1.817267
445 1 39.979876 18.172671 0.000000
446 1 39.979876 19.989938 1.817267
447 1 41.797143 19.989938 0.000000
448 1 41.797143 18.172671 1.817267
449 1 43.614410 18.172671 0.000000
450 1 43.614410 19.989938 1.817267
451 1 45.431678 19.989938 0.000000
452 1 45.431678 18.172671 1.817267
453 1 47.248945 18.172671 0.000000
454 1 47.248945 19.989938 1.817267
455 1 49.066212 19.989938 0.000000
456 1 49.066212 18.172671 1.817267
457 1 50.883479 18.172671 0.000000
458 1 50.883479 19.989938 1.817267
459 1 52.700746 19.989938 0.000000
460 1 52.700746 18.172671 1.817267
461 1 54.518013 18.172671 0.000000
462 1 54.518013 19.989938 1.817267
463 1 56.335280 19.989938 0.000000
464 1 56.335280 18.172671 1.817267
465 1 58.152547 18.172671 0.000000
466 1 58.152547 19.989938 1.817267
467 1 59.969814 19.989938 0.000000
468 1 59.969814 18.172671 1.817267
469 1 61.787081 18.172671 0.000000
470 1 61.787081 19.989938 1.817267
471 1 63.604349 19.989938 0.000000
472 1 63.604349 18.172671 1.817267
473 1 65.421616 18.172671 0.000000
474 1 65.421616 19.989938 1.817267
475 1 67.238883 19.989938 0.000000
476 1 67.238883 18.172671 1.817267
477 1 69.056150 18.172671 0.000000
478 1 69.056150 19.989938 1.817267
479 1 70.873417 19.989938 0.000000
480 1 70.873417 18.172671 1.817267
481 1 0.000000 21.807205 0.000000
482 1 0.000000 23.624472 1.817267
483 1 1.817267 23.624472 0.000000
484 1 1.817267 21.807205 1.817267
485 1 3.634534 21.807205 0.000000
486 1 3.634534 23.624472 1.817267
487 1 5.451801 23.624472 0.000000
488 1 5.451801 21.807205 1.817267
489 1 7.269068 21.807205 0.000000
490 1 7.269068 23.624472 1.817267
491 1 9.086336 23.624472 0.000000
492 1 9.086336 21.807205 1.817267
493 1 10.903603 21.807205 0.000000
494 1 10.903603 23.624472 1.817267
495 1 12.720870 23.624472 0.000000
496 1 12.720870 21.807205 1.817267
497 1 14.538137 21.807205 0.000000
498 1 14.538137 23.624472 1.817267
499 1 16.355404 23.624472 0.000000
500 1 16.355404 21.807205 1.817267
501 1 18.172671 21.807205 0.000000
502 1 18.172671 23.624472 1.817267
503 1 19.989938 23.624472 0.000000
504 1 19.989938 21.807205 1.817267
505 1 21.807205 21.807205 0.000000
506 1 21.807205 23.624472 1.817267
507 1 23.624472 23.624472 0.000000
508 1 23.624472 21.807205 1.817267
509 1 25.441739 21.807205 0.000000
510 1 25.441739 23.624472 1.817267
511 1 27.259006 23.624472 0.000000
512 1 27.259006 21.807205 1.817267
513 1 29.076274 21.807205 0.000000
514 1 29.076274 23.624472 1.817267
515 1 30.893541 23.624472 0.000000
516 1 30.893541 21.807205 1.817267
517 1 32.710808 21.807205 0.000000
518 1 32.710808 23.624472 1.817267
519 1 34.528075 23.624472 0.000000
520 1 34.528075 21.807205 1.817267
521 1 36.345342 21.807205 0.000000
522 1 36.345342 23.624472 1.817267
523 1 38.162609 23.624472 0.000000
524 1 38.162609 21.807205 1.817267
525 1 39.979876 21.807205 0.000000
526 1 39.979876 23.624472 1.817267
527 1 41.797143 23.624472 0.000000
528 1 41.797143 21.807205 1.817267
529 1 43.614410 21.807205 0.000000
530 1 43.614410 23.624472 1.817267
531 1 45.431678 23.624472 0.000000
532 1 45.431678 21.807205 1.817267
533 1 47.248945 21.807205 0.000000
534 1 47.248945 23.624472 1.817267
535 1 49.066212 23.624472 0.000000
536 1 49.066212 21.807205 1.817267
537 1 50.883479 21.807205 0.000000
538 1 50.883479 23.624472 1.817267
539 1 52.700746 23.624472 0.000000
540 1 52.700746 21.807205 1.817267
541 1 54.518013 21.807205 0.000000
542 1 54.518013 23.624472 1.817267
543 1 56.335280 23.624472 0.000000
544 1 56.335280 21.807205 1.817267
545 1 58.152547 21.807205 0.000000
546 1 58.152547 23.624472 1.817267
547 1 59.969814 23.624472 0.000000
548 1 59.969814 21.807205 1.817267
549 1 61.787081 21.807205 0.000000
550 1 61.787081 23.624472 1.817267
551 1 63.604349 23.624472 0.000000
552 1 63.604349 21.807205 1.817267
553 1 65.421616 21.807205 0.000000
554 1 65.421616 23.624472 1.817267
555 1 67.238883 23.624472 0.000000
556 1 67.238883 21.807205 1.817267
557 1 69.056150 21.807205 0.000000
558 1 69.056150 23.624472 1.817267
559 1 70.873417 23.624472 0.000000
560 1 70.873417 21.807205 1.817267
561 1 0.000000 25.441739 0.000000
562 1 0.000000 27.259006 1.817267
563 1 1.817267 27.259006 0.000000
564 1 1.817267 25.441739 1.817267
565 1 3.634534 25.441739 0.000000
566 1 3.634534 27.259006 1.817267
567 1 5.451801 27.259006 0.000000
568 1 5.451801 25.441739 1.817267
569 1 7.269068 25.441739 0.000000
570 1 7.269068 27.259006 1.817267
571 1 9.086336 27.259006 0.000000
572 1 9.086336 25.441739 1.817267
573 1 10.903603 25.441739 0.000000
574 1 10.903603 27.259006 1.817267
575 1 12.720870 27.259006 0.000000
576 1 12.720870 25.441739 1.817267
577 1 14.538137 25.441739 0.000000
578 1 14.538137 27.259006 1.817267
579 1 16.355404 27.259006 0.000000
580 1 16.355404 25.441739 1.817267
581 1 18.172671 25.441739 0.000000
582 1 18.172671 27.259006 1.817267
583 1 19.989938 27.259006 0.000000
584 1 19.989938 25.441739 1.817267
585 1 21.807205 25.441739 0.000000
586 1 21.807205 27.259006 1.817267
587 1 23.624472 27.259006 0.000000
588 1 23.624472 25.441739 1.817267
589 1 25.441739 25.441739 0.000000
590 1 25.441739 27.259006 1.817267
591 1 27.259006 27.259006 0.000000
592 1 27.259006 25.441739 1.817267
593 1 29.076274 25.441739 0.000000
594 1 29.076274 27.259006 1.817267
595 1 30.893541 27.259006 0.000000
596 1 30.893541 25.441739 1.817267
597 1 32.710808 25.441739 0.000000
598 1 32.710808 27.259006 1.817267
599 1 34.528075 27.259006 0.000000
600 1 34.528075 25.441739 1.817267
601 1 36.345342 25.441739 0.000000
602 1 36.345342 27.259006 1.817267
603 1 38.162609 27.259006 0.000000
604 1 38.162609 25.441739 1.817267
605 1 39.979876 25.441739 0.000000
606 1 39.979876 27.259006 1.817267
607 1 41.797143 27.259006 0.000000
608 1 41.797143 25.441739 1.817267
609 1 43.614410 25.441739 0.000000
610 1 43.614410 27.259006 1.817267
611 1 45.431678 27.259006 0.000000
612 1 45.431678 25.441739 1.817267
613 1 47.248945 25.441739 0.000000
614 1 47.248945 27.259006 1.817267
615 1 49.066212 27.259006 0.000000
616 1 49.066212 25.441739 1.817267
617 1 50.883479 25.441739 0.000000
618 1 50.883479 27.259006 1.817267
619 1 52.700746 27.259006 0.000000
620 1 52.700746 25.441739 1.817267
621 1 54.518013 25.441739 0.000000
622 1 54.518013 27.259006 1.817267
623 1 56.335280 27.259006 0.000000
624 1 56.335280 25.441739 1.817267
625 1 58.152547 25.441739 0.000000
626 1 58.152547 27.259006 1.817267
627 1 59.969814 27.259006 0.000000
628 1 59.969814 25.441739 1.817267
629 1 61.787081 25.441739 0.000000
630 1 61.787081 27.259006 1.817267
631 1 63.604349 27.259006 0.000000
632 1 63.604349 25.441739 1.817267
633 1 65.421616 25.441739 0.000000
634 1 65.421616 27.259006 1.817267
635 1 67.238883 27.259006 0.000000
636 1 67.238883 25.441739 1.817267
637 1 69.056150 25.441739 0.000000
638 1 69.056150 27.259006 1.817267
639 1 70.873417 27.259006 0.000000
640 1 70.873417 25.441739 1.817267
641 1 0.000000 29.076274 0.000000
642 1 0.000000 30.893541 1.817267
643 1 1.817267 30.893541 0.000000
644 1 1.817267 29.076274 1.817267
645 1 3.634534 29.076274 0.000000
646 1 3.634534 30.893541 1.817267
647 1 5.451801 30.893541 0.000000
648 1 5.451801 29.076274 1.817267
649 1 7.269068 29.076274 0.000000
650 1 7.269068 30.893541 1.817267
651 1 9.086336 30.893541 0.000000
652 1 9.086336 29.076274 1.817267
653 1 10.903603 29.076274 0.000000
654 1 10.903603 30.893541 1.817267
655 1 12.720870 30.893541 0.000000
656 1 12.720870 29.076274 1.817267
657 1 14.538137 29.076274 0.000000
658 1 14.538137 30.893541 1.817267
659 1 16.355404 30.893541 0.000000
660 1 16.355404 29.076274 1.817267
661 1 18.172671 29.076274 0.000000
662 1 18.172671 30.893541 1.817267
663 1 19.989938 30.893541 0.000000
664 1 19.989938 29.076274 1.817267
665 1 21.807205 29.076274 0.000000
666 1 21.807205 30.893541 1.817267
667 1 23.624472 30.893541 0.000000
668 1 23.624472 29.076274 1.817267
669 1 25.441739 29.076274 0.000000
670 1 25.441739 30.893541 1.817267
671 1 27.259006 30.893541 0.000000
672 1 27.259006 29.076274 1.817267
673 1 29.076274 29.076274 0.000000
674 1 29.076274 30.893541 1.817267
675 1 30.893541 30.893541 0.000000
676 1 30.893541 29.076274 1.817267
677 1 32.710808 29.076274 0.000000
678 1 32.710808 30.893541 1.817267
679 1 34.528075 30.893541 0.000000
680 1 34.528075 29.076274 1.817267
681 1 36.345342 29.076274 0.000000
682 1 36.345342 30.893541 1.817267
683 1 38.162609 30.893541 0.000000
684 1 38.162609 29.076274 1.817267
685 1 39.979876 29.076274 0.000000
686 1 39.979876 30.893541 1.817267
687 1 41.797143 30.893541 0.000000
688 1 41.797143 29.076274 1.817267
689 1 43.614410 29.076274 0.000000
690 1 43.614410 30.893541 1.817267
691 1 45.431678 30.893541 0.000000
692 1 45.431678 29.076274 1.817267
693 1 47.248945 29.076274 0.000000
694 1 47.248945 30.893541 1.817267
695 1 49.066212 30.893541 0.000000
696 1 49.066212 29.076274 1.817267
697 1 50.883479 29.076274 0.000000
698 1 50.883479 30.893541 1.817267
699 1 52.700746 30.893541 0.000000
700 1 52.700746 29.076274 1.817267
701 1 54.518013 29.076274 0.000000
702 1 54.518013 30.893541 1.817267
703 1 56.335280 30.893541 0.000000
704 1 56.335280 29.076274 1.817267
705 1 58.152547 29.076274 0.000000
706 1 58.152547 30.893541 1.817267
707 1 59.969814 30.893541 0.000000
708 1 59.969814 29.076274 1.817267
709 1 61.787081 29.076274 0.000000
710 1 61.787081 30.893541 1.817267
711 1 63.604349 30.893541 0.000000
712 1 63.604349 29.076274 1.817267
713 1 65.421616 29.076274 0.000000
714 1 65.421616 30.893541 1.817267
715 1 67.238883 30.893541 0.000000
716 1 67.238883 29.076274 1.817267
717 1 69.056150 29.076274 0.000000
718 1 69.056150 30.893541 1.817267
719 1 70.873417 30.893541 0.000000
720 1 70.873417 29.076274 1.817267
721 1 0.000000 32.710808 0.000000
722 1 0.000000 34.528075 1.817267
723 1 1.817267 34.528075 0.000000
724 1 1.817267 32.710808 1.817267
725 1 3.634534 32.710808 0.000000
726 1 3.634534 34.528075 1.817267
727 1 5.451801 34.528075 0.000000
728 1 5.451801 32.710808 1.817267
729 1 7.269068 32.710808 0.000000
730 1 7.269068 34.528075 1.817267
731 1 9.086336 34.528075 0.000000
732 1 9.086336 32.710808 1.817267
733 1 10.903603 32.710808 0.000000
734 1 10.903603 34.528075 1.817267
735 1 12.720870 34.528075 0.000000
736 1 12.720870 32.710808 1.817267
737 1 14.538137 32.710808 0.000000
738 1 14.538137 34.528075 1.817267
739 1 16.355404 34.528075 0.000000
740 1 16.355404 32.710808 1.817267
741 1 18.172671 32.710808 0.000000
742 1 18.172671 34.528075 1.817267
743 1 19.989938 34.528075 0.000000
744 1 19.989938 32.710808 1.817267
745 1 21.807205 32.710808 0.000000
746 1 21.807205 34.528075 1.817267
747 1 23.624472 34.528075 0.000000
748 1 23.624472 32.710808 1.817267
749 1 25.441739 32.710808 0.000000
750 1 25.441739 34.528075 1.817267
751 1 27.259006 34.528075 0.000000
752 1 27.259006 32.710808 1.817267
753 1 29.076274 32.710808 0.000000
754 1 29.076274 34.528075 1.817267
755 1 30.893541 34.528075 0.000000
756 1 30.893541 32.710808 1.817267
757 1 32.710808 32.710808 0.000000
758 1 32.710808 34.528075 1.817267
759 1 34.528075 34.528075 0.000000
760 1 34.528075 32.710808 1.817267
761 1 36.345342 32.710808 0.000000
762 1 36.345342 34.528075 1.817267
763 1 38.162609 34.528075 0.000000
764 1 38.162609 32.710808 1.817267
765 1 39.979876 32.710808 0.000000
766 1 39.979876 34.528075 1.817267
767 1 41.797143 34.528075 0.000000
768 1 41.797143 32.710808 1.817267
769 1 43.614410 32.710808 0.000000
770 1 43.614410 34.528075 1.817267
771 1 45.431678 34.528075 0.000000
772 1 45.431678 32.710808 1.817267
773 1 47.248945 32.710808 0.000000
774 1 47.248945 34.528075 1.817267
775 1 49.066212 34.528075 0.000000
776 1 49.066212 32.710808 1.817267
777 1 50.883479 32.710808 0.000000
778 1 50.883479 34.528075 1.817267
779 1 52.700746 34.528075 0.000000
780 1 52.700746 32.710808 1.817267
781 1 54.518013 32.710808 0.000000
782 1 54.518013 34.528075 1.817267
783 1 56.335280 34.528075 0.000000
784 1 56.335280 32.710808 1.817267
785 1 58.152547 32.710808 0.000000
786 1 58.152547 34.528075 1.817267
787 1 59.969814 34.528075 0.000000
788 1 59.969814 32.710808 1.817267
789 1 61.787081 32.710808 0.000000
790 1 61.787081 34.528075 1.817267
791 1 63.604349 34.528075 0.000000
792 1 63.604349 32.710808 1.817267
793 1 65.421616 32.710808 0.000000
794 1 65.421616 34.528075 1.817267
795 1 67.238883 34.528075 0.000000
796 1 67.238883 32.710808 1.817267
797 1 69.056150 32.710808 0.000000
798 1 69.056150 34.528075 1.817267
799 1 70.873417 34.528075 0.000000
800 1 70.873417 32.710808 1.817267
801 1 0.000000 36.345342 0.000000
802 1 0.000000 38.162609 1.817267
803 1 1.817267 38.162609 0.000000
804 1 1.817267 36.345342 1.817267
805 1 3.634534 36.345342 0.000000
806 1 3.634534 38.162609 1.817267
807 1 5.451801 38.162609 0.000000
808 1 5.451801 36.345342 1.817267
809 1 7.269068 36.345342 0.000000
810 1 7.269068 38.162609 1.817267
811 1 9.086336 38.162609 0.000000
812 1 9.086336 36.345342 1.817267
813 1 10.903603 36.345342 0.000000
814 1 10.903603 38.162609 1.817267
815 1 12.720870 38.162609 0.000000
816 1 12.720870 36.345342 1.817267
817 1 14.538137 36.345342 0.000000
818 1 14.538137 38.162609 1.817267
819 1 16.355404 38.162609 0.000000
820 1 16.355404 36.345342 1.817267
821 1 18.172671 36.345342 0.000000
822 1 18.172671 38.162609 1.817267
823 1 19.989938 38.162609 0.000000
824 1 19.989938 36.345342 1.817267
825 1 21.807205 36.345342 0.000000
826 1 21.807205 38.162609 1.817267
827 1 23.624472 38.162609 0.000000
828 1 23.624472 36.345342 1.817267
829 1 25.441739 36.345342 0.000000
830 1 25.441739 38.162609 1.817267
831 1 27.259006 38.162609 0.000000
832 1 27.259006 36.345342 1.817267
833 1 29.076274 36.345342 0.000000
834 1 29.076274 38.162609 1.817267
835 1 30.893541 38.162609 0.000000
836 1 30.893541 36.345342 1.817267
837 1 32.710808 36.345342 0.000000
838 1 32.710808 38.162609 1.817267
839 1 34.528075 38.162609 0.000000
840 1 34.528075 36.345342 1.817267
841 1 36.345342 36.345342 0.000000
842 1 36.345342 38.162609 1.817267
843 1 38.162609 38.162609 0.000000
844 1 38.162609 36.345342 1.817267
845 1 39.979876 36.345342 0.000000
846 1 39.979876 38.162609 1.817267
847 1 41.797143 38.162609 0.000000
848 1 41.797143 36.345342 1.817267
849 1 43.614410 36.345342 0.000000
850 1 43.614410 38.162609 1.817267
851 1 45.431678 38.162609 0.000000
852 1 45.431678 36.345342 1.817267
853 1 47.248945 36.345342 0.000000
854 1 47.248945 38.162609 1.817267
855 1 49.066212 38.162609 0.000000
856 1 49.066212 36.345342 1.817267
857 1 50.883479 36.345342 0.000000
858 1 50.883479 38.162609 1.817267
859 1 52.700746 38.162609 0.000000
860 1 52.700746 36.345342 1.817267
861 1 54.518013 36.345342 0.000000
862 1 54.518013 38.162609 1.817267
863 1 56.335280 38.162609 0.000000
864 1 56.335280 36.345342 1.817267
865 1 58.152547 36.345342 0.000000
866 1 58.152547 38.162609 1.817267
867 1 59.969814 38.162609 0.000000