#Cu

4000 atoms
1 atom types
0.0 36.390000 xlo xhi
0.0 36.390000 ylo yhi
0.0 36.390000 zlo zhi

Atoms

1 1 0.000000 0.000000 0.000000
2 1 0.000000 1.819500 1.819500
3 1 1.819500 1.819500 0.000000
4 1 1.819500 0.000000 1.819500
5 1 3.639000 0.000000 0.000000
6 1 3.639000 1.819500 1.819500
7 1 5.458500 1.819500 0.000000
8 1 5.458500 0.000000 1.819500
9 1 7.278000 0.000000 0.000000
10 1 7.278000 1.819500 1.819500
11 1 9.097500 1.819500 0.000000
12 1 9.097500 0.000000 1.819500
13 1 10.917000 0.000000 0.000000
14 1 10.917000 1.819500 1.819500
15 1 12.736500 1.819500 0.000000
16 1 12.736500 0.000000 1.819500
17 1 14.556000 0.000000 0.000000
18 1 14.556000 1.819500 1.819500
19 1 16.375500 1.819500 0.000000
20 1 16.375500 0.000000 1.819500
21 1 18.195000 0.000000 0.000000
22 1 18.195000 1.819500 1.819500
23 1 20.014500 1.819500 0.000000
24 1 20.014500 0.000000 1.819500
25 1 21.834000 0.000000 0.000000
26 1 21.834000 1.819500 1.819500
27 1 23.653500 1.819500 0.000000
28 1 23.653500 0.000000 1.819500
29 1 25.473000 0.000000 0.000000
30 1 25.473000 1.819500 1.819500
31 1 27.292500 1.819500 0.000000
32 1 27.292500 0.000000 1.819500
33 1 29.112000 0.000000 0.000000
34 1 29.112000 1.819500 1.819500
35 1 30.931500 1.819500 0.000000
36 1 30.931500 0.000000 1.819500
37 1 32.751000 0.000000 0.000000
38 1 32.751000 1.819500 1.819500
39 1 34.570500 1.819500 0.000000
40 1 34.570500 0.000000 1.819500
41 1 0.000000 3.639000 0.000000
42 1 0.000000 5.458500 1.819500
43 1 1.819500 5.458500 0.000000
44 1 1.819500 3.639000 1.819500
45 1 3.639000 3.639000 0.000000
46 1 3.639000 5.458500 1.819500
47 1 5.458500 5.458500 0.000000
48 1 5.458500 3.639000 1.819500
49 1 7.278000 3.639000 0.000000
50 1 7.278000 5.458500 1.819500
51 1 9.097500 5.458500 0.000000
52 1 9.097500 3.639000 1.819500
53 1 10.917000 3.639000 0.000000
54 1 10.917000 5.458500 1.819500
55 1 12.736500 5.458500 0.000000
56 1 12.736500 3.639000 1.819500
57 1 14.556000 3.639000 0.000000
58 1 14.556000 5.458500 1.819500
59 1 16.375500 5.458500 0.000000
60 1 16.375500 3.639000 1.819500
61 1 18.195000 3.639000 0.000000
62 1 18.195000 5.458500 1.819500
63 1 20.014500 5.458500 0.000000
64 1 20.014500 3.639000 1.819500
65 1 21.834000 3.639000 0.000000
66 1 21.834000 5.458500 1.819500
67 1 23.653500 5.458500 0.000000
68 1 23.653500 3.639000 1.819500
69 1 25.473000 3.639000 0.000000
70 1 25.473000 5.458500 1.819500
71 1 27.292500 5.458500 0.000000
72 1 27.292500 3.639000 1.819500
73 1 29.112000 3.639000 0.000000
74 1 29.112000 5.458500 1.819500
75 1 30.931500 5.458500 0.000000
76 1 30.931500 3.639000 1.819500
77 1 32.751000 3.639000 0.000000
78 1 32.751000 5.458500 1.819500
79 1 34.570500 5.458500 0.000000
80 1 34.570500 3.639000 1.819500
81 1 0.000000 7.278000 0.000000
82 1 0.000000 9.097500 1.819500
83 1 1.819500 9.097500 0.000000
84 1 1.819500 7.278000 1.819500
85 1 3.639000 7.278000 0.000000
86 1 3.639000 9.097500 1.819500
87 1 5.458500 9.097500 0.000000
88 1 5.458500 7.278000 1.819500
89 1 7.278000 7.278000 0.000000
90 1 7.278000 9.097500 1.819500
91 1 9.097500 9.097500 0.000000
92 1 9.097500 7.278000 1.819500
93 1 10.917000 7.278000 0.000000
94 1 10.917000 9.097500 1.819500
95 1 12.736500 9.097500 0.000000
96 1 12.736500 7.278000 1.819500
97 1 14.556000 7.278000 0.000000
98 1 14.556000 9.097500 1.819500
99 1 16.375500 9.097500 0.000000
100 1 16.375500 7.278000 1.819500
101 1 18.195000 7.278000 0.000000
102 1 18.195000 9.097500 1.819500
103 1 20.014500 9.097500 0.000000
104 1 20.014500 7.278000 1.819500
105 1 21.834000 7.278000 0.000000
106 1 21.834000 9.097500 1.819500
107 1 23.653500 9.097500 0.000000
108 1 23.653500 7.278000 1.819500
109 1 25.473000 7.278000 0.000000
110 1 25.473000 9.097500 1.819500
111 1 27.292500 9.097500 0.000000
112 1 27.292500 7.278000 1.819500
113 1 29.112000 7.278000 0.000000
114 1 29.112000 9.097500 1.819500
115 1 30.931500 9.097500 0.000000
116 1 30.931500 7.278000 1.819500
117 1 32.751000 7.278000 0.000000
118 1 32.751000 9.097500 1.819500
119 1 34.570500 9.097500 0.000000
120 1 34.570500 7.278000 1.819500
121 1 0.000000 10.917000 0.000000
122 1 0.000000 12.736500 1.819500
123 1 1.819500 12.736500 0.000000
124 1 1.819500 10.917000 1.819500
125 1 3.639000 10.917000 0.000000
126 1 3.639000 12.736500 1.819500
127 1 5.458500 12.736500 0.000000
128 1 5.458500 10.917000 1.819500
129 1 7.278000 10.917000 0.000000
130 1 7.278000 12.736500 1.819500
131 1 9.097500 12.736500 0.000000
132 1 9.097500 10.917000 1.819500
133 1 10.917000 10.917000 0.000000
134 1 10.917000 12.736500 1.819500
135 1 12.736500 12.736500 0.000000
136 1 12.736500 10.917000 1.819500
137 1 14.556000 10.917000 0.000000
138 1 14.556000 12.736500 1.819500
139 1 16.375500 12.736500 0.000000
140 1 16.375500 10.917000 1.819500
141 1 18.195000 10.917000 0.000000
142 1 18.195000 12.736500 1.819500
143 1 20.014500 12.736500 0.000000
144 1 20.014500 10.917000 1.819500
145 1 21.834000 10.917000 0.000000
146 1 21.834000 12.736500 1.819500
147 1 23.653500 12.736500 0.000000
148 1 23.653500 10.917000 1.819500
149 1 25.473000 10.917000 0.000000
150 1 25.473000 12.736500 1.819500
151 1 27.292500 12.736500 0.000000
152 1 27.292500 10.917000 1.819500
153 1 29.112000 10.917000 0.000000
154 1 29.112000 12.736500 1.819500
155 1 30.931500 12.736500 0.000000
156 1 30.931500 10.917000 1.819500
157 1 32.751000 10.917000 0.000000
158 1 32.751000 12.736500 1.819500
159 1 34.570500 12.736500 0.000000
160 1 34.570500 10.917000 1.819500
161 1 0.000000 14.556000 0.000000
162 1 0.000000 16.375500 1.819500
163 1 1.819500 16.375500 0.000000
164 1 1.819500 14.556000 1.819500
165 1 3.639000 14.556000 0.000000
166 1 3.639000 16.375500 1.819500
167 1 5.458500 16.375500 0.000000
168 1 5.458500 14.556000 1.819500
169 1 7.278000 14.556000 0.000000
170 1 7.278000 16.375500 1.819500
171 1 9.097500 16.375500 0.000000
172 1 9.097500 14.556000 1.819500
173 1 10.917000 14.556000 0.000000
174 1 10.917000 16.375500 1.819500
175 1 12.736500 16.375500 0.000000
176 1 12.736500 14.556000 1.819500
177 1 14.556000 14.556000 0.000000
178 1 14.556000 16.375500 1.819500
179 1 16.375500 16.375500 0.000000
180 1 16.375500 14.556000 1.819500
181 1 18.195000 14.556000 0.000000
182 1 18.195000 16.375500 1.819500
183 1 20.014500 16.375500 0.000000
184 1 20.014500 14.556000 1.819500
185 1 21.834000 14.556000 0.000000
186 1 21.834000 16.375500 1.819500
187 1 23.653500 16.375500 0.000000
188 1 23.653500 14.556000 1.819500
189 1 25.473000 14.556000 0.000000
190 1 25.473000 16.375500 1.819500
191 1 27.292500 16.375500 0.000000
192 1 27.292500 14.556000 1.819500
193 1 29.112000 14.556000 0.000000
194 1 29.112000 16.375500 1.819500
195 1 30.931500 16.375500 0.000000
196 1 30.931500 14.556000 1.819500
197 1 32.751000 14.556000 0.000000
198 1 32.751000 16.375500 1.819500
199 1 34.570500 16.375500 0.000000
200 1 34.570500 14.556000 1.819500
201 1 0.000000 18.195000 0.000000
202 1 0.000000 20.014500 1.819500
203 1 1.819500 20.014500 0.000000
204 1 1.819500 18.195000 1.819500
205 1 3.639000 18.195000 0.000000
206 1 3.639000 20.014500 1.819500
207 1 5.458500 20.014500 0.000000
208 1 5.458500 18.195000 1.819500
209 1 7.278000 18.195000 0.000000
210 1 7.278000 20.014500 1.819500
211 1 9.097500 20.014500 0.000000
212 1 9.097500 18.195000 1.819500
213 1 10.917000 18.195000 0.000000
214 1 10.917000 20.014500 1.819500
215 1 12.736500 20.014500 0.000000
216 1 12.736500 18.195000 1.819500
217 1 14.556000 18.195000 0.000000
218 1 14.556000 20.014500 1.819500
219 1 16.375500 20.014500 0.000000
220 1 16.375500 18.195000 1.819500
221 1 18.195000 18.195000 0.000000
222 1 18.195000 20.014500 1.819500
223 1 20.014500 20.014500 0.000000
224 1 20.014500 18.195000 1.819500
225 1 21.834000 18.195000 0.000000
226 1 21.834000 20.014500 1.819500
227 1 23.653500 20.014500 0.000000
228 1 23.653500 18.195000 1.819500
229 1 25.473000 18.195000 0.000000
230 1 25.473000 20.014500 1.819500
231 1 27.292500 20.014500 0.000000
232 1 27.292500 18.195000 1.819500
233 1 29.112000 18.195000 0.000000
234 1 29.112000 20.014500 1.819500
235 1 30.931500 20.014500 0.000000
236 1 30.931500 18.195000 1.819500
237 1 32.751000 18.195000 0.000000
238 1 32.751000 20.014500 1.819500
239 1 34.570500 20.014500 0.000000
240 1 34.570500 18.195000 1.819500
241 1 0.000000 21.834000 0.000000
242 1 0.000000 23.653500 1.819500
243 1 1.819500 23.653500 0.000000
244 1 1.819500 21.834000 1.819500
245 1 3.639000 21.834000 0.000000
246 1 3.639000 23.653500 1.819500
247 1 5.458500 23.653500 0.000000
248 1 5.458500 21.834000 1.819500
249 1 7.278000 21.834000 0.000000
250 1 7.278000 23.653500 1.819500
251 1 9.097500 23.653500 0.000000
252 1 9.097500 21.834000 1.819500
253 1 10.917000 21.834000 0.000000
254 1 10.917000 23.653500 1.819500
255 1 12.736500 23.653500 0.000000
256 1 12.736500 21.834000 1.819500
257 1 14.556000 21.834000 0.000000
258 1 14.556000 23.653500 1.819500
259 1 16.375500 23.653500 0.000000
260 1 16.375500 21.834000 1.819500
261 1 18.195000 21.834000 0.000000
262 1 18.195000 23.653500 1.819500
263 1 20.014500 23.653500 0.000000
264 1 20.014500 21.834000 1.819500
265 1 21.834000 21.834000 0.000000
266 1 21.834000 23.653500 1.819500
267 1 23.653500 23.653500 0.000000
268 1 23.653500 21.834000 1.819500
269 1 25.473000 21.834000 0.000000
270 1 25.473000 23.653500 1.819500
271 1 27.292500 23.653500 0.000000
272 1 27.292500 21.834000 1.819500
273 1 29.112000 21.834000 0.000000
274 1 29.112000 23.653500 1.819500
275 1 30.931500 23.653500 0.000000
276 1 30.931500 21.834000 1.819500
277 1 32.751000 21.834000 0.000000
278 1 32.751000 23.653500 1.819500
279 1 34.570500 23.653500 0.000000
280 1 34.570500 21.834000 1.819500
281 1 0.000000 25.473000 0.000000
282 1 0.000000 27.292500 1.819500
283 1 1.819500 27.292500 0.000000
284 1 1.819500 25.473000 1.819500
285 1 3.639000 25.473000 0.000000
286 1 3.639000 27.292500 1.819500
287 1 5.458500 27.292500 0.000000
288 1 5.458500 25.473000 1.819500
289 1 7.278000 25.473000 0.000000
290 1 7.278000 27.292500 1.819500
291 1 9.097500 27.292500 0.000000
292 1 9.097500 25.473000 1.819500
293 1 10.917000 25.473000 0.000000
294 1 10.917000 27.292500 1.819500
295 1 12.736500 27.292500 0.000000
296 1 12.736500 25.473000 1.819500
297 1 14.556000 25.473000 0.000000
298 1 14.556000 27.292500 1.819500
299 1 16.375500 27.292500 0.000000
300 1 16.375500 25.473000 1.819500
301 1 18.195000 25.473000 0.000000
302 1 18.195000 27.292500 1.819500
303 1 20.014500 27.292500 0.000000
304 1 20.014500 25.473000 1.819500
305 1 21.834000 25.473000 0.000000
306 1 21.834000 27.292500 1.819500
307 1 23.653500 27.292500 0.000000
308 1 23.653500 25.473000 1.819500
309 1 25.473000 25.473000 0.000000
310 1 25.473000 27.292500 1.819500
311 1 27.292500 27.292500 0.000000
312 1 27.292500 25.473000 1.819500
313 1 29.112000 25.473000 0.000000
314 1 29.112000 27.292500 1.819500
315 1 30.931500 27.292500 0.000000
316 1 30.931500 25.473000 1.819500
317 1 32.751000 25.473000 0.000000
318 1 32.751000 27.292500 1.819500
319 1 34.570500 27.292500 0.000000
320 1 34.570500 25.473000 1.819500
321 1 0.000000 29.112000 0.000000
322 1 0.000000 30.931500 1.819500
323 1 1.819500 30.931500 0.000000
324 1 1.819500 29.112000 1.819500
325 1 3.639000 29.112000 0.000000
326 1 3.639000 30.931500 1.819500
327 1 5.458500 30.931500 0.000000
328 1 5.458500 29.112000 1.819500
329 1 7.278000 29.112000 0.000000
330 1 7.278000 30.931500 1.819500
331 1 9.097500 30.931500 0.000000
332 1 9.097500 29.112000 1.819500
333 1 10.917000 29.112000 0.000000
334 1 10.917000 30.931500 1.819500
335 1 12.736500 30.931500 0.000000
336 1 12.736500 29.112000 1.819500
337 1 14.556000 29.112000 0.000000
338 1 14.556000 30.931500 1.819500
339 1 16.375500 30.931500 0.000000
340 1 16.375500 29.112000 1.819500
341 1 18.195000 29.112000 0.000000
342 1 18.195000 30.931500 1.819500
343 1 20.014500 30.931500 0.000000
344 1 20.014500 29.112000 1.819500
345 1 21.834000 29.112000 0.000000
346 1 21.834000 30.931500 1.819500
347 1 23.653500 30.931500 0.000000
348 1 23.653500 29.112000 1.819500
349 1 25.473000 29.112000 0.000000
350 1 25.473000 30.931500 1.819500
351 1 27.292500 30.931500 0.000000
352 1 27.292500 29.112000 1.819500
353 1 29.112000 29.112000 0.000000
354 1 29.112000 30.931500 1.819500
355 1 30.931500 30.931500 0.000000
356 1 30.931500 29.112000 1.819500
357 1 32.751000 29.112000 0.000000
358 1 32.751000 30.931500 1.819500
359 1 34.570500 30.931500 0.000000
360 1 34.570500 29.112000 1.819500
361 1 0.000000 32.751000 0.000000
362 1 0.000000 34.570500 1.819500
363 1 1.819500 34.570500 0.000000
364 1 1.819500 32.751000 1.819500
365 1 3.639000 32.751000 0.000000
366 1 3.639000 34.570500 1.819500
367 1 5.458500 34.570500 0.000000
368 1 5.458500 32.751000 1.819500
369 1 7.278000 32.751000 0.000000
370 1 7.278000 34.570500 1.819500
371 1 9.097500 34.570500 0.000000
372 1 9.097500 32.751000 1.819500
373 1 10.917000 32.751000 0.000000
374 1 10.917000 34.570500 1.819500
375 1 12.736500 34.570500 0.000000
376 1 12.736500 32.751000 1.819500
377 1 14.556000 32.751000 0.000000
378 1 14.556000 34.570500 1.819500
379 1 16.375500 34.570500 0.000000
380 1 16.375500 32.751000 1.819500
381 1 18.195000 32.751000 0.000000
382 1 18.195000 34.570500 1.819500
383 1 20.014500 34.570500 0.000000
384 1 20.014500 32.751000 1.819500
385 1 21.834000 32.751000 0.000000
386 1 21.834000 34.570500 1.819500
387 1 23.653500 34.570500 0.000000
388 1 23.653500 32.751000 1.819500
389 1 25.473000 32.751000 0.000000
390 1 25.473000 34.570500 1.819500
391 1 27.292500 34.570500 0.000000
392 1 27.292500 32.751000 1.819500
393 1 29.112000 32.751000 0.000000
394 1 29.112000 34.570500 1.819500
395 1 30.931500 34.570500 0.000000
396 1 30.931500 32.751000 1.819500
397 1 32.751000 32.751000 0.000000
398 1 32.751000 34.570500 1.819500
399 1 34.570500 34.570500 0.000000
400 1 34.570500 32.751000 1.819500
401 1 0.000000 0.000000 3.639000
402 1 0.000000 1.819500 5.458500
403 1 1.819500 1.819500 3.639000
404 1 1.819500 0.000000 5.458500
405 1 3.639000 0.000000 3.639000
406 1 3.639000 1.819500 5.458500
407 1 5.458500 1.819500 3.639000
408 1 5.458500 0.000000 5.458500
409 1 7.278000 0.000000 3.639000
410 1 7.278000 1.819500 5.458500
411 1 9.097500 1.819500 3.639000
412 1 9.097500 0.000000 5.458500
413 1 10.917000 0.000000 3.639000
414 1 10.917000 1.819500 5.458500
415 1 12.736500 1.819500 3.639000
416 1 12.736500 0.000000 5.458500
417 1 14.556000 0.000000 3.639000
418 1 14.556000 1.819500 5.458500
419 1 16.375500 1.819500 3.639000
420 1 16.375500 0.000000 5.458500
421 1 18.195000 0.000000 3.639000
422 1 18.195000 1.819500 5.458500
423 1 20.014500 1.819500 3.639000
424 1 20.014500 0.000000 5.458500
425 1 21.834000 0.000000 3.639000
426 1 21.834000 1.819500 5.458500
427 1 23.653500 1.819500 3.639000
428 1 23.653500 0.000000 5.458500
429 1 25.473000 0.000000 3.639000
430 1 25.473000 1.819500 5.458500
431 1 27.292500 1.819500 3.639000
432 1 27.292500 0.000000 5.458500
433 1 29.112000 0.000000 3.639000
434 1 29.112000 1.819500 5.458500
435 1 30.931500 1.819500 3.639000
436 1 30.931500 0.000000 5.458500
437 1 32.751000 0.000000 3.639000
438 1 32.751000 1.819500 5.458500
439 1 34.570500 1.819500 3.639000
440 1 34.570500 0.000000 5.458500
441 1 0.000000 3.639000 3.639000
442 1 0.000000 5.458500 5.458500
443 1 1.819500 5.458500 3.639000
444 1 1.819500 3.639000 5.458500
445 1 3.639000 3.639000 3.639000
446 1 3.639000 5.458500 5.458500
447 1 5.458500 5.458500 3.639000
448 1 5.458500 3.639000 5.458500
449 1 7.278000 3.639000 3.639000
450 1 7.278000 5.458500 5.458500
451 1 9.097500 5.458500 3.639000
452 1 9.097500 3.639000 5.458500
453 1 10.917000 3.639000 3.639000
454 1 10.917000 5.458500 5.458500
455 1 12.736500 5.458500 3.639000
456 1 12.736500 3.639000 5.458500
457 1 14.556000 3.639000 3.639000
458 1 14.556000 5.458500 5.458500
459 1 16.375500 5.458500 3.639000
460 1 16.375500 3.639000 5.458500
461 1 18.195000 3.639000 3.639000
462 1 18.195000 5.458500 5.458500
463 1 20.014500 5.458500 3.639000
464 1 20.014500 3.639000 5.458500
465 1 21.834000 3.639000 3.639000
466 1 21.834000 5.458500 5.458500
467 1 23.653500 5.458500 3.639000
468 1 23.653500 3.639000 5.458500
469 1 25.473000 3.639000 3.639000
470 1 25.473000 5.458500 5.458500
471 1 27.292500 5.458500 3.639000
472 1 27.292500 3.639000 5.458500
473 1 29.112000 3.639000 3.639000
474 1 29.112000 5.458500 5.458500
475 1 30.931500 5.458500 3.639000
476 1 30.931500 3.639000 5.458500
477 1 32.751000 3.639000 3.639000
478 1 32.751000 5.458500 5.458500
479 1 34.570500 5.458500 3.639000
480 1 34.570500 3.639000 5.458500
481 1 0.000000 7.278000 3.639000
482 1 0.000000 9.097500 5.458500
483 1 1.819500 9.097500 3.639000
484 1 1.819500 7.278000 5.458500
485 1 3.639000 7.278000 3.639000
486 1 3.639000 9.097500 5.458500
487 1 5.458500 9.097500 3.639000
488 1 5.458500 7.278000 5.458500
489 1 7.278000 7.278000 3.639000
490 1 7.278000 9.097500 5.458500
491 1 9.097500 9.097500 3.639000
492 1 9.097500 7.278000 5.458500
493 1 10.917000 7.278000 3.639000
494 1 10.917000 9.097500 5.458500
495 1 12.736500 9.097500 3.639000
496 1 12.736500 7.278000 5.458500
497 1 14.556000 7.278000 3.639000
498 1 14.556000 9.097500 5.458500
499 1 16.375500 9.097500 3.639000
500 1 16.375500 7.278000 5.458500
501 1 18.195000 7.278000 3.639000
502 1 18.195000 9.097500 5.458500
503 1 20.014500 9.097500 3.639000
504 1 20.014500 7.278000 5.458500
505 1 21.834000 7.278000 3.639000
506 1 21.834000 9.097500 5.458500
507 1 23.653500 9.097500 3.639000
508 1 23.653500 7.278000 5.458500
509 1 25.473000 7.278000 3.639000
510 1 25.473000 9.097500 5.458500
511 1 27.292500 9.097500 3.639000
512 1 27.292500 7.278000 5.458500
513 1 29.112000 7.278000 3.639000
514 1 29.112000 9.097500 5.458500
515 1 30.931500 9.097500 3.639000
516 1 30.931500 7.278000 5.458500
517 1 32.751000 7.278000 3.639000
518 1 32.751000 9.097500 5.458500
519 1 34.570500 9.097500 3.639000
520 1 34.570500 7.278000 5.458500
521 1 0.000000 10.917000 3.639000
522 1 0.000000 12.736500 5.458500
523 1 1.819500 12.736500 3.639000
524 1 1.819500 10.917000 5.458500
525 1 3.639000 10.917000 3.639000
526 1 3.639000 12.736500 5.458500
527 1 5.458500 12.736500 3.639000
528 1 5.458500 10.917000 5.458500
529 1 7.278000 10.917000 3.639000
530 1 7.278000 12.736500 5.458500
531 1 9.097500 12.736500 3.639000
532 1 9.097500 10.917000 5.458500
533 1 10.917000 10.917000 3.639000
534 1 10.917000 12.736500 5.458500
535 1 12.736500 12.736500 3.639000
536 1 12.736500 10.917000 5.458500
537 1 14.556000 10.917000 3.639000
538 1 14.556000 12.736500 5.458500
539 1 16.375500 12.736500 3.639000
540 1 16.375500 10.917000 5.458500
541 1 18.195000 10.917000 3.639000
542 1 18.195000 12.736500 5.458500
543 1 20.014500 12.736500 3.639000
544 1 20.014500 10.917000 5.458500
545 1 21.834000 10.917000 3.639000
546 1 21.834000 12.736500 5.458500
547 1 23.653500 12.736500 3.639000
548 1 23.653500 10.917000 5.458500
549 1 25.473000 10.917000 3.639000
550 1 25.473000 12.736500 5.458500
551 1 27.292500 12.736500 3.639000
552 1 27.292500 10.917000 5.458500
553 1 29.112000 10.917000 3.639000
554 1 29.112000 12.736500 5.458500
555 1 30.931500 12.736500 3.639000
556 1 30.931500 10.917000 5.458500
557 1 32.751000 10.917000 3.639000
558 1 32.751000 12.736500 5.458500
559 1 34.570500 12.736500 3.639000
560 1 34.570500 10.917000 5.458500
561 1 0.000000 14.556000 3.639000
562 1 0.000000 16.375500 5.458500
563 1 1.819500 16.375500 3.639000
564 1 1.819500 14.556000 5.458500
565 1 3.639000 14.556000 3.639000
566 1 3.639000 16.375500 5.458500
567 1 5.458500 16.375500 3.639000
568 1 5.458500 14.556000 5.458500
569 1 7.278000 14.556000 3.639000
570 1 7.278000 16.375500 5.458500
571 1 9.097500 16.375500 3.639000
572 1 9.097500 14.556000 5.458500
573 1 10.917000 14.556000 3.639000
574 1 10.917000 16.375500 5.458500
575 1 12.736500 16.375500 3.639000
576 1 12.736500 14.556000 5.458500
577 1 14.556000 14.556000 3.639000
578 1 14.556000 16.375500 5.458500
579 1 16.375500 16.375500 3.639000
580 1 16.375500 14.556000 5.458500
581 1 18.195000 14.556000 3.639000
582 1 18.195000 16.375500 5.458500
583 1 20.014500 16.375500 3.639000
584 1 20.014500 14.556000 5.458500
585 1 21.834000 14.556000 3.639000
586 1 21.834000 16.375500 5.458500
587 1 23.653500 16.375500 3.639000
588 1 23.653500 14.556000 5.458500
589 1 25.473000 14.556000 3.639000
590 1 25.473000 16.375500 5.458500
591 1 27.292500 16.375500 3.639000
592 1 27.292500 14.556000 5.458500
593 1 29.112000 14.556000 3.639000
594 1 29.112000 16.375500 5.458500
595 1 30.931500 16.375500 3.639000
596 1 30.931500 14.556000 5.458500
597 1 32.751000 14.556000 3.639000
598 1 32.751000 16.375500 5.458500
599 1 34.570500 16.375500 3.639000
600 1 34.570500 14.556000 5.458500
601 1 0.000000 18.195000 3.639000
602 1 0.000000 20.014500 5.458500
603 1 1.819500 20.014500 3.639000
604 1 1.819500 18.195000 5.458500
605 1 3.639000 18.195000 3.639000
606 1 3.639000 20.014500 5.458500
607 1 5.458500 20.014500 3.639000
608 1 5.458500 18.195000 5.458500
609 1 7.278000 18.195000 3.639000
610 1 7.278000 20.014500 5.458500
611 1 9.097500 20.014500 3.639000
612 1 9.097500 18.195000 5.458500
613 1 10.917000 18.195000 3.639000
614 1 10.917000 20.014500 5.458500
615 1 12.736500 20.014500 3.639000
616 1 12.736500 18.195000 5.458500
617 1 14.556000 18.195000 3.639000
618 1 14.556000 20.014500 5.458500
619 1 16.375500 20.014500 3.639000
620 1 16.375500 18.195000 5.458500
621 1 18.195000 18.195000 3.639000
622 1 18.195000 20.014500 5.458500
623 1 20.014500 20.014500 3.639000
624 1 20.014500 18.195000 5.458500
625 1 21.834000 18.195000 3.639000
626 1 21.834000 20.014500 5.458500
627 1 23.653500 20.014500 3.639000
628 1 23.653500 18.195000 5.458500
629 1 25.473000 18.195000 3.639000
630 1 25.473000 20.014500 5.458500
631 1 27.292500 20.014500 3.639000
632 1 27.292500 18.195000 5.458500
633 1 29.112000 18.195000 3.639000
634 1 29.112000 20.014500 5.458500
635 1 30.931500 20.014500 3.639000
636 1 30.931500 18.195000 5.458500
637 1 32.751000 18.195000 3.639000
638 1 32.751000 20.014500 5.458500
639 1 34.570500 20.014500 3.639000
640 1 34.570500 18.195000 5.458500
641 1 0.000000 21.834000 3.639000
642 1 0.000000 23.653500 5.458500
643 1 1.819500 23.653500 3.639000
644 1 1.819500 21.834000 5.458500
645 1 3.639000 21.834000 3.639000
646 1 3.639000 23.653500 5.458500
647 1 5.458500 23.653500 3.639000
648 1 5.458500 21.834000 5.458500
649 1 7.278000 21.834000 3.639000
650 1 7.278000 23.653500 5.458500
651 1 9.097500 23.653500 3.639000
652 1 9.097500 21.834000 5.458500
653 1 10.917000 21.834000 3.639000
654 1 10.917000 23.653500 5.458500
655 1 12.736500 23.653500 3.639000
656 1 12.736500 21.834000 5.458500
657 1 14.556000 21.834000 3.639000
658 1 14.556000 23.653500 5.458500
659 1 16.375500 23.653500 3.639000
660 1 16.375500 21.834000 5.458500
661 1 18.195000 21.834000 3.639000
662 1 18.195000 23.653500 5.458500
663 1 20.014500 23.653500 3.639000
664 1 20.014500 21.834000 5.458500
665 1 21.834000 21.834000 3.639000
666 1 21.834000 23.653500 5.458500
667 1 23.653500 23.653500 3.639000
668 1 23.653500 21.834000 5.458500
669 1 25.473000 21.834000 3.639000
670 1 25.473000 23.653500 5.458500
671 1 27.292500 23.653500 3.639000
672 1 27.292500 21.834000 5.458500
673 1 29.112000 21.834000 3.639000
674 1 29.112000 23.653500 5.458500
675 1 30.931500 23.653500 3.639000
676 1 30.931500 21.834000 5.458500
677 1 32.751000 21.834000 3.639000
678 1 32.751000 23.653500 5.458500
679 1 34.570500 23.653500 3.639000
680 1 34.570500 21.834000 5.458500
681 1 0.000000 25.473000 3.639000
682 1 0.000000 27.292500 5.458500
683 1 1.819500 27.292500 3.639000
684 1 1.819500 25.473000 5.458500
685 1 3.639000 25.473000 3.639000
686 1 3.639000 27.292500 5.458500
687 1 5.458500 27.292500 3.639000
688 1 5.458500 25.473000 5.458500
689 1 7.278000 25.473000 3.639000
690 1 7.278000 27.292500 5.458500
691 1 9.097500 27.292500 3.639000
692 1 9.097500 25.473000 5.458500
693 1 10.917000 25.473000 3.639000
694 1 10.917000 27.292500 5.458500
695 1 12.736500 27.292500 3.639000
696 1 12.736500 25.473000 5.458500
697 1 14.556000 25.473000 3.639000
698 1 14.556000 27.292500 5.458500
699 1 16.375500 27.292500 3.639000
700 1 16.375500 25.473000 5.458500
701 1 18.195000 25.473000 3.639000
702 1 18.195000 27.292500 5.458500
703 1 20.014500 27.292500 3.639000
704 1 20.014500 25.473000 5.458500
705 1 21.834000 25.473000 3.639000
706 1 21.834000 27.292500 5.458500
707 1 23.653500 27.292500 3.639000
708 1 23.653500 25.473000 5.458500
709 1 25.473000 25.473000 3.639000
710 1 25.473000 27.292500 5.458500
711 1 27.292500 27.292500 3.639000
712 1 27.292500 25.473000 5.458500
713 1 29.112000 25.473000 3.639000
714 1 29.112000 27.292500 5.458500
715 1 30.931500 27.292500 3.639000
716 1 30.931500 25.473000 5.458500
717 1 32.751000 25.473000 3.639000
718 1 32.751000 27.292500 5.458500
719 1 34.570500 27.292500 3.639000
720 1 34.570500 25.473000 5.458500
721 1 0.000000 29.112000 3.639000
722 1 0.000000 30.931500 5.458500
723 1 1.819500 30.931500 3.639000
724 1 1.819500 29.112000 5.458500
725 1 3.639000 29.112000 3.639000
726 1 3.639000 30.931500 5.458500
727 1 5.458500 30.931500 3.639000
728 1 5.458500 29.112000 5.458500
729 1 7.278000 29.112000 3.639000
730 1 7.278000 30.931500 5.458500
731 1 9.097500 30.931500 3.639000
732 1 9.097500 29.112000 5.458500
733 1 10.917000 29.112000 3.639000
734 1 10.917000 30.931500 5.458500
735 1 12.736500 30.931500 3.639000
736 1 12.736500 29.112000 5.458500
737 1 14.556000 29.112000 3.639000
738 1 14.556000 30.931500 5.458500
739 1 16.375500 30.931500 3.639000
740 1 16.375500 29.112000 5.458500
741 1 18.195000 29.112000 3.639000
742 1 18.195000 30.931500 5.458500
743 1 20.014500 30.931500 3.639000
744 1 20.014500 29.112000 5.458500
745 1 21.834000 29.112000 3.639000
746 1 21.834000 30.931500 5.458500
747 1 23.653500 30.931500 3.639000
748 1 23.653500 29.112000 5.458500
749 1 25.473000 29.112000 3.639000
750 1 25.473000 30.931500 5.458500
751 1 27.292500 30.931500 3.639000
752 1 27.292500 29.112000 5.458500
753 1 29.112000 29.112000 3.639000
754 1 29.112000 30.931500 5.458500
755 1 30.931500 30.931500 3.639000
756 1 30.931500 29.112000 5.458500
757 1 32.751000 29.112000 3.639000
758 1 32.751000 30.931500 5.458500
759 1 34.570500 30.931500 3.639000
760 1 34.570500 29.112000 5.458500
761 1 0.000000 32.751000 3.639000
762 1 0.000000 34.570500 5.458500
763 1 1.819500 34.570500 3.639000
764 1 1.819500 32.751000 5.458500
765 1 3.639000 32.751000 3.639000
766 1 3.639000 34.570500 5.458500
767 1 5.458500 34.570500 3.639000
768 1 5.458500 32.751000 5.458500
769 1 7.278000 32.751000 3.639000
770 1 7.278000 34.570500 5.458500
771 1 9.097500 34.570500 3.639000
772 1 9.097500 32.751000 5.458500
773 1 10.917000 32.751000 3.639000
774 1 10.917000 34.570500 5.458500
775 1 12.736500 34.570500 3.639000
776 1 12.736500 32.751000 5.458500
777 1 14.556000 32.751000 3.639000
778 1 14.556000 34.570500 5.458500
779 1 16.375500 34.570500 3.639000
780 1 16.375500 32.751000 5.458500
781 1 18.195000 32.751000 3.639000
782 1 18.195000 34.570500 5.458500
783 1 20.014500 34.570500 3.639000
784 1 20.014500 32.751000 5.458500
785 1 21.834000 32.751000 3.639000
786 1 21.834000 34.570500 5.458500
787 1 23.653500 34.570500 3.639000
788 1 23.653500 32.751000 5.458500
789 1 25.473000 32.751000 3.639000
790 1 25.473000 34.570500 5.458500
791 1 27.292500 34.570500 3.639000
792 1 27.292500 32.751000 5.458500
793 1 29.112000 32.751000 3.639000
794 1 29.112000 34.570500 5.458500
795 1 30.931500 34.570500 3.639000
796 1 30.931500 32.751000 5.458500
797 1 32.751000 32.751000 3.639000
798 1 32.751000 34.570500 5.458500
799 1 34.570500 34.570500 3.639000
800 1 34.570500 32.751000 5.458500
801 1 0.000000 0.000000 7.278000
802 1 0.000000 1.819500 9.097500
803 1 1.819500 1.819500 7.278000
804 1 1.819500 0.000000 9.097500
805 1 3.639000 0.000000 7.278000
806 1 3.639000 1.819500 9.097500
807 1 5.458500 1.819500 7.278000
808 1 5.458500 0.000000 9.097500
809 1 7.278000 0.000000 7.278000
810 1 7.278000 1.819500 9.097500
811 1 9.097500 1.819500 7.278000
812 1 9.097500 0.000000 9.097500
813 1 10.917000 0.000000 7.278000
814 1 10.917000 1.819500 9.097500
815 1 12.736500 1.819500 7.278000
816 1 12.736500 0.000000 9.097500
817 1 14.556000 0.000000 7.278000
818 1 14.556000 1.819500 9.097500
819 1 16.375500 1.819500 7.278000
820 1 16.375500 0.000000 9.097500
821 1 18.195000 0.000000 7.278000
822 1 18.195000 1.819500 9.097500
823 1 20.014500 1.819500 7.278000
824 1 20.014500 0.000000 9.097500
825 1 21.834000 0.000000 7.278000
826 1 21.834000 1.819500 9.097500
827 1 23.653500 1.819500 7.278000
828 1 23.653500 0.000000 9.097500
829 1 25.473000 0.000000 7.278000
830 1 25.473000 1.819500 9.097500
831 1 27.292500 1.819500 7.278000
832 1 27.292500 0.000000 9.097500
833 1 29.112000 0.000000 7.278000
834 1 29.112000 1.819500 9.097500
835 1 30.931500 1.819500 7.278000
836 1 30.931500 0.000000 9.097500
837 1 32.751000 0.000000 7.278000
838 1 32.751000 1.819500 9.097500
839 1 34.570500 1.819500 7.278000
840 1 34.570500 0.000000 9.097500
841 1 0.000000 3.639000 7.278000
842 1 0.000000 5.458500 9.097500
843 1 1.819500 5.458500 7.278000
844 1 1.819500 3.639000 9.097500
845 1 3.639000 3.639000 7.278000
846 1 3.639000 5.458500 9.097500
847 1 5.458500 5.458500 7.278000
848 1 5.458500 3.639000 9.097500
849 1 7.278000 3.639000 7.278000
850 1 7.278000 5.458500 9.097500
851 1 9.097500 5.458500 7.278000
852 1 9.097500 3.639000 9.097500
853 1 10.917000 3.639000 7.278000
854 1 10.917000 5.458500 9.097500
855 1 12.736500 5.458500 7.278000
856 1 12.736500 3.639000 9.097500
857 1 14.556000 3.639000 7.278000
858 1 14.556000 5.458500 9.097500
859 1 16.375500 5.458500 7.278000
860 1 16.375500 3.639000 9.097500
861 1 18.195000 3.639000 7.278000
862 1 18.195000 5.458500 9.097500
863 1 20.014500 5.458500 7.278000
864 1 20.014500 3.639000 9.097500
865 1 21.834000 3.639000 7.278000
866 1 21.834000 5.458500 9.097500
867 1 23.653500 5.458500 7.278000
868 1 23.653500 3.639000 9.097500
869 1 25.473000 3.639000 7.278000
870 1 25.473000 5.458500 9.097500
871 1 27.292500 5.458500 7.278000
872 1 27.292500 3.639000 9.097500
873 1 29.112000 3.639000 7.278000