#Cu

255 atoms
1 atom types
0.0 14.556000 xlo xhi
0.0 14.556000 ylo yhi
0.0 14.556000 zlo zhi

Atoms

1 1 0.000000 0.000000 0.000000
2 1 0.000000 1.819500 1.819500
3 1 1.819500 1.819500 0.000000
4 1 1.819500 0.000000 1.819500
5 1 3.639000 0.000000 0.000000
6 1 3.639000 1.819500 1.819500
7 1 5.458500 1.819500 0.000000
8 1 5.458500 0.000000 1.819500
9 1 7.278000 0.000000 0.000000
10 1 7.278000 1.819500 1.819500
11 1 9.097500 1.819500 0.000000
12 1 9.097500 0.000000 1.819500
13 1 10.917000 0.000000 0.000000
14 1 10.917000 1.819500 1.819500
15 1 12.736500 1.819500 0.000000
16 1 12.736500 0.000000 1.819500
17 1 0.000000 3.639000 0.000000
18 1 0.000000 5.458500 1.819500
19 1 1.819500 5.458500 0.000000
20 1 1.819500 3.639000 1.819500
21 1 3.639000 3.639000 0.000000
22 1 3.639000 5.458500 1.819500
23 1 5.458500 5.458500 0.000000
24 1 5.458500 3.639000 1.819500
25 1 7.278000 3.639000 0.000000
26 1 7.278000 5.458500 1.819500
27 1 9.097500 5.458500 0.000000
28 1 9.097500 3.639000 1.819500
29 1 10.917000 3.639000 0.000000
30 1 10.917000 5.458500 1.819500
31 1 12.736500 5.458500 0.000000
32 1 12.736500 3.639000 1.819500
33 1 0.000000 7.278000 0.000000
34 1 0.000000 9.097500 1.819500
35 1 1.819500 9.097500 0.000000
36 1 1.819500 7.278000 1.819500
37 1 3.639000 7.278000 0.000000
38 1 3.639000 9.097500 1.819500
39 1 5.458500 9.097500 0.000000
40 1 5.458500 7.278000 1.819500
41 1 7.278000 7.278000 0.000000
42 1 7.278000 9.097500 1.819500
43 1 9.097500 9.097500 0.000000
44 1 9.097500 7.278000 1.819500
45 1 10.917000 7.278000 0.000000
46 1 10.917000 9.097500 1.819500
47 1 12.736500 9.097500 0.000000
48 1 12.736500 7.278000 1.819500
49 1 0.000000 10.917000 0.000000
50 1 0.000000 12.736500 1.819500
51 1 1.819500 12.736500 0.000000
52 1 1.819500 10.917000 1.819500
53 1 3.639000 10.917000 0.000000
54 1 3.639000 12.736500 1.819500
55 1 5.458500 12.736500 0.000000
56 1 5.458500 10.917000 1.819500
57 1 7.278000 10.917000 0.000000
58 1 7.278000 12.736500 1.819500
59 1 9.097500 12.736500 0.000000
60 1 9.097500 10.917000 1.819500
61 1 10.917000 10.917000 0.000000
62 1 10.917000 12.736500 1.819500
63 1 12.736500 12.736500 0.000000
64 1 12.736500 10.917000 1.819500
65 1 0.000000 0.000000 3.639000
66 1 0.000000 1.819500 5.458500
67 1 1.819500 1.819500 3.639000
68 1 1.819500 0.000000 5.458500
69 1 3.639000 0.000000 3.639000
70 1 3.639000 1.819500 5.458500
71 1 5.458500 1.819500 3.639000
72 1 5.458500 0.000000 5.458500
73 1 7.278000 0.000000 3.639000
74 1 7.278000 1.819500 5.458500
75 1 9.097500 1.819500 3.639000
76 1 9.097500 0.000000 5.458500
77 1 10.917000 0.000000 3.639000
78 1 10.917000 1.819500 5.458500
79 1 12.736500 1.819500 3.639000
80 1 12.736500 0.000000 5.458500
81 1 0.000000 3.639000 3.639000
82 1 0.000000 5.458500 5.458500
83 1 1.819500 5.458500 3.639000
84 1 1.819500 3.639000 5.458500
85 1 3.639000 3.639000 3.639000
86 1 3.639000 5.458500 5.458500
87 1 5.458500 5.458500 3.639000
88 1 5.458500 3.639000 5.458500
89 1 7.278000 3.639000 3.639000
90 1 7.278000 5.458500 5.458500
91 1 9.097500 5.458500 3.639000
92 1 9.097500 3.639000 5.458500
93 1 10.917000 3.639000 3.639000
94 1 10.917000 5.458500 5.458500
95 1 12.736500 5.458500 3.639000
96 1 12.736500 3.639000 5.458500
97 1 0.000000 7.278000 3.639000
98 1 0.000000 9.097500 5.458500
99 1 1.819500 9.097500 3.639000
100 1 1.819500 7.278000 5.458500
101 1 3.639000 7.278000 3.639000
102 1 3.639000 9.097500 5.458500
103 1 5.458500 9.097500 3.639000
104 1 5.458500 7.278000 5.458500
105 1 7.278000 7.278000 3.639000
106 1 7.278000 9.097500 5.458500
107 1 9.097500 9.097500 3.639000
108 1 9.097500 7.278000 5.458500
109 1 10.917000 7.278000 3.639000
110 1 10.917000 9.097500 5.458500
111 1 12.736500 9.097500 3.639000
112 1 12.736500 7.278000 5.458500
113 1 0.000000 10.917000 3.639000
114 1 0.000000 12.736500 5.458500
115 1 1.819500 12.736500 3.639000
116 1 1.819500 10.917000 5.458500
117 1 3.639000 10.917000 3.639000
118 1 3.639000 12.736500 5.458500
119 1 5.458500 12.736500 3.639000
120 1 5.458500 10.917000 5.458500
121 1 7.278000 10.917000 3.639000
122 1 7.278000 12.736500 5.458500
123 1 9.097500 12.736500 3.639000
124 1 9.097500 10.917000 5.458500
125 1 10.917000 10.917000 3.639000
126 1 10.917000 12.736500 5.458500
127 1 12.736500 12.736500 3.639000
128 1 12.736500 10.917000 5.458500
129 1 0.000000 0.000000 7.278000
130 1 0.000000 1.819500 9.097500
131 1 1.819500 1.819500 7.278000
132 1 1.819500 0.000000 9.097500
133 1 3.639000 0.000000 7.278000
134 1 3.639000 1.819500 9.097500
135 1 5.458500 1.819500 7.278000
136 1 5.458500 0.000000 9.097500
137 1 7.278000 0.000000 7.278000
138 1 7.278000 1.819500 9.097500
139 1 9.097500 1.819500 7.278000
140 1 9.097500 0.000000 9.097500
141 1 10.917000 0.000000 7.278000
142 1 10.917000 1.819500 9.097500
143 1 12.736500 1.819500 7.278000
144 1 12.736500 0.000000 9.097500
145 1 0.000000 3.639000 7.278000
146 1 0.000000 5.458500 9.097500
147 1 1.819500 5.458500 7.278000
148 1 1.819500 3.639000 9.097500
149 1 3.639000 3.639000 7.278000
150 1 3.639000 5.458500 9.097500
151 1 5.458500 5.458500 7.278000
152 1 5.458500 3.639000 9.097500
153 1 7.278000 3.639000 7.278000
154 1 7.278000 5.458500 9.097500
155 1 9.097500 5.458500 7.278000
156 1 9.097500 3.639000 9.097500
157 1 10.917000 3.639000 7.278000
158 1 10.917000 5.458500 9.097500
159 1 12.736500 5.458500 7.278000
160 1 12.736500 3.639000 9.097500
161 1 0.000000 7.278000 7.278000
162 1 0.000000 9.097500 9.097500
163 1 1.819500 9.097500 7.278000
164 1 1.819500 7.278000 9.097500
165 1 3.639000 7.278000 7.278000
166 1 3.639000 9.097500 9.097500
167 1 5.458500 9.097500 7.278000
168 1 5.458500 7.278000 9.097500
169 1 7.278000 9.097500 9.097500
170 1 9.097500 9.097500 7.278000
171 1 9.097500 7.278000 9.097500
172 1 10.917000 7.278000 7.278000
173 1 10.917000 9.097500 9.097500
174 1 12.736500 9.097500 7.278000
175 1 12.736500 7.278000 9.097500
176 1 0.000000 10.917000 7.278000
177 1 0.000000 12.736500 9.097500
178 1 1.819500 12.736500 7.278000
179 1 1.819500 10.917000 9.097500
180 1 3.639000 10.917000 7.278000
181 1 3.639000 12.736500 9.097500
182 1 5.458500 12.736500 7.278000
183 1 5.458500 10.917000 9.097500
184 1 7.278000 10.917000 7.278000
185 1 7.278000 12.736500 9.097500
186 1 9.097500 12.736500 7.278000
187 1 9.097500 10.917000 9.097500
188 1 10.917000 10.917000 7.278000
189 1 10.917000 12.736500 9.097500
190 1 12.736500 12.736500 7.278000
191 1 12.736500 10.917000 9.097500
192 1 0.000000 0.000000 10.917000
193 1 0.000000 1.819500 12.736500
194 1 1.819500 1.819500 10.917000
195 1 1.819500 0.000000 12.736500
196 1 3.639000 0.000000 10.917000
197 1 3.639000 1.819500 12.736500
198 1 5.458500 1.819500 10.917000
199 1 5.458500 0.000000 12.736500
200 1 7.278000 0.000000 10.917000
201 1 7.278000 1.819500 12.736500
202 1 9.097500 1.819500 10.917000
203 1 9.097500 0.000000 12.736500
204 1 10.917000 0.000000 10.917000
205 1 10.917000 1.819500 12.736500
206 1 12.736500 1.819500 10.917000
207 1 12.736500 0.000000 12.736500
208 1 0.000000 3.639000 10.917000
209 1 0.000000 5.458500 12.736500
210 1 1.819500 5.458500 10.917000
211 1 1.819500 3.639000 12.736500
212 1 3.639000 3.639000 10.917000
213 1 3.639000 5.458500 12.736500
214 1 5.458500 5.458500 10.917000
215 1 5.458500 3.639000 12.736500
216 1 7.278000 3.639000 10.917000
217 1 7.278000 5.458500 12.736500
218 1 9.097500 5.458500 10.917000
219 1 9.097500 3.639000 12.736500
220 1 10.917000 3.639000 10.917000
221 1 10.917000 5.458500 12.736500
222 1 12.736500 5.458500 10.917000
223 1 12.736500 3.639000 12.736500
224 1 0.000000 7.278000 10.917000
225 1 0.000000 9.097500 12.736500
226 1 1.819500 9.097500 10.917000
227 1 1.819500 7.278000 12.736500
228 1 3.639000 7.278000 10.917000
229 1 3.639000 9.097500 12.736500
230 1 5.458500 9.097500 10.917000
231 1 5.458500 7.278000 12.736500
232 1 7.278000 7.278000 10.917000
233 1 7.278000 9.097500 12.736500
234 1 9.097500 9.097500 10.917000
235 1 9.097500 7.278000 12.736500
236 1 10.917000 7.278000 10.917000
237 1 10.917000 9.097500 12.736500
238 1 12.736500 9.097500 10.917000
239 1 12.736500 7.278000 12.736500
240 1 0.000000 10.917000 10.917000
241 1 0.000000 12.736500 12.736500
242 1 1.819500 12.736500 10.917000
243 1 1.819500 10.917000 12.736500
244 1 3.639000 10.917000 10.917000
245 1 3.639000 12.736500 12.736500
246 1 5.458500 12.736500 10.917000
247 1 5.458500 10.917000 12.736500
248 1 7.278000 10.917000 10.917000
249 1 7.278000 12.736500 12.736500
250 1 9.097500 12.736500 10.917000
251 1 9.097500 10.917000 12.736500
252 1 10.917000 10.917000 10.917000
253 1 10.917000 12.736500 12.736500
254 1 12.736500 12.736500 10.917000
255 1 12.736500 10.917000 12.736500
